Genome data file produced on: Fri Sep 10 11:45:26 2021

500 atoms
499 bonds

500 atom types
1 bond types
1 angle types

-5.469524 5.469524 xlo xhi
-5.469524 5.469524 ylo yhi
-5.469524 5.469524 zlo zhi

Masses

   1    1.0000
   2    1.0000
   3    1.0000
   4    1.0000
   5    1.0000
   6    1.0000
   7    1.0000
   8    1.0000
   9    1.0000
  10    1.0000
  11    1.0000
  12    1.0000
  13    1.0000
  14    1.0000
  15    1.0000
  16    1.0000
  17    1.0000
  18    1.0000
  19    1.0000
  20    1.0000
  21    1.0000
  22    1.0000
  23    1.0000
  24    1.0000
  25    1.0000
  26    1.0000
  27    1.0000
  28    1.0000
  29    1.0000
  30    1.0000
  31    1.0000
  32    1.0000
  33    1.0000
  34    1.0000
  35    1.0000
  36    1.0000
  37    1.0000
  38    1.0000
  39    1.0000
  40    1.0000
  41    1.0000
  42    1.0000
  43    1.0000
  44    1.0000
  45    1.0000
  46    1.0000
  47    1.0000
  48    1.0000
  49    1.0000
  50    1.0000
  51    1.0000
  52    1.0000
  53    1.0000
  54    1.0000
  55    1.0000
  56    1.0000
  57    1.0000
  58    1.0000
  59    1.0000
  60    1.0000
  61    1.0000
  62    1.0000
  63    1.0000
  64    1.0000
  65    1.0000
  66    1.0000
  67    1.0000
  68    1.0000
  69    1.0000
  70    1.0000
  71    1.0000
  72    1.0000
  73    1.0000
  74    1.0000
  75    1.0000
  76    1.0000
  77    1.0000
  78    1.0000
  79    1.0000
  80    1.0000
  81    1.0000
  82    1.0000
  83    1.0000
  84    1.0000
  85    1.0000
  86    1.0000
  87    1.0000
  88    1.0000
  89    1.0000
  90    1.0000
  91    1.0000
  92    1.0000
  93    1.0000
  94    1.0000
  95    1.0000
  96    1.0000
  97    1.0000
  98    1.0000
  99    1.0000
 100    1.0000
 101    1.0000
 102    1.0000
 103    1.0000
 104    1.0000
 105    1.0000
 106    1.0000
 107    1.0000
 108    1.0000
 109    1.0000
 110    1.0000
 111    1.0000
 112    1.0000
 113    1.0000
 114    1.0000
 115    1.0000
 116    1.0000
 117    1.0000
 118    1.0000
 119    1.0000
 120    1.0000
 121    1.0000
 122    1.0000
 123    1.0000
 124    1.0000
 125    1.0000
 126    1.0000
 127    1.0000
 128    1.0000
 129    1.0000
 130    1.0000
 131    1.0000
 132    1.0000
 133    1.0000
 134    1.0000
 135    1.0000
 136    1.0000
 137    1.0000
 138    1.0000
 139    1.0000
 140    1.0000
 141    1.0000
 142    1.0000
 143    1.0000
 144    1.0000
 145    1.0000
 146    1.0000
 147    1.0000
 148    1.0000
 149    1.0000
 150    1.0000
 151    1.0000
 152    1.0000
 153    1.0000
 154    1.0000
 155    1.0000
 156    1.0000
 157    1.0000
 158    1.0000
 159    1.0000
 160    1.0000
 161    1.0000
 162    1.0000
 163    1.0000
 164    1.0000
 165    1.0000
 166    1.0000
 167    1.0000
 168    1.0000
 169    1.0000
 170    1.0000
 171    1.0000
 172    1.0000
 173    1.0000
 174    1.0000
 175    1.0000
 176    1.0000
 177    1.0000
 178    1.0000
 179    1.0000
 180    1.0000
 181    1.0000
 182    1.0000
 183    1.0000
 184    1.0000
 185    1.0000
 186    1.0000
 187    1.0000
 188    1.0000
 189    1.0000
 190    1.0000
 191    1.0000
 192    1.0000
 193    1.0000
 194    1.0000
 195    1.0000
 196    1.0000
 197    1.0000
 198    1.0000
 199    1.0000
 200    1.0000
 201    1.0000
 202    1.0000
 203    1.0000
 204    1.0000
 205    1.0000
 206    1.0000
 207    1.0000
 208    1.0000
 209    1.0000
 210    1.0000
 211    1.0000
 212    1.0000
 213    1.0000
 214    1.0000
 215    1.0000
 216    1.0000
 217    1.0000
 218    1.0000
 219    1.0000
 220    1.0000
 221    1.0000
 222    1.0000
 223    1.0000
 224    1.0000
 225    1.0000
 226    1.0000
 227    1.0000
 228    1.0000
 229    1.0000
 230    1.0000
 231    1.0000
 232    1.0000
 233    1.0000
 234    1.0000
 235    1.0000
 236    1.0000
 237    1.0000
 238    1.0000
 239    1.0000
 240    1.0000
 241    1.0000
 242    1.0000
 243    1.0000
 244    1.0000
 245    1.0000
 246    1.0000
 247    1.0000
 248    1.0000
 249    1.0000
 250    1.0000
 251    1.0000
 252    1.0000
 253    1.0000
 254    1.0000
 255    1.0000
 256    1.0000
 257    1.0000
 258    1.0000
 259    1.0000
 260    1.0000
 261    1.0000
 262    1.0000
 263    1.0000
 264    1.0000
 265    1.0000
 266    1.0000
 267    1.0000
 268    1.0000
 269    1.0000
 270    1.0000
 271    1.0000
 272    1.0000
 273    1.0000
 274    1.0000
 275    1.0000
 276    1.0000
 277    1.0000
 278    1.0000
 279    1.0000
 280    1.0000
 281    1.0000
 282    1.0000
 283    1.0000
 284    1.0000
 285    1.0000
 286    1.0000
 287    1.0000
 288    1.0000
 289    1.0000
 290    1.0000
 291    1.0000
 292    1.0000
 293    1.0000
 294    1.0000
 295    1.0000
 296    1.0000
 297    1.0000
 298    1.0000
 299    1.0000
 300    1.0000
 301    1.0000
 302    1.0000
 303    1.0000
 304    1.0000
 305    1.0000
 306    1.0000
 307    1.0000
 308    1.0000
 309    1.0000
 310    1.0000
 311    1.0000
 312    1.0000
 313    1.0000
 314    1.0000
 315    1.0000
 316    1.0000
 317    1.0000
 318    1.0000
 319    1.0000
 320    1.0000
 321    1.0000
 322    1.0000
 323    1.0000
 324    1.0000
 325    1.0000
 326    1.0000
 327    1.0000
 328    1.0000
 329    1.0000
 330    1.0000
 331    1.0000
 332    1.0000
 333    1.0000
 334    1.0000
 335    1.0000
 336    1.0000
 337    1.0000
 338    1.0000
 339    1.0000
 340    1.0000
 341    1.0000
 342    1.0000
 343    1.0000
 344    1.0000
 345    1.0000
 346    1.0000
 347    1.0000
 348    1.0000
 349    1.0000
 350    1.0000
 351    1.0000
 352    1.0000
 353    1.0000
 354    1.0000
 355    1.0000
 356    1.0000
 357    1.0000
 358    1.0000
 359    1.0000
 360    1.0000
 361    1.0000
 362    1.0000
 363    1.0000
 364    1.0000
 365    1.0000
 366    1.0000
 367    1.0000
 368    1.0000
 369    1.0000
 370    1.0000
 371    1.0000
 372    1.0000
 373    1.0000
 374    1.0000
 375    1.0000
 376    1.0000
 377    1.0000
 378    1.0000
 379    1.0000
 380    1.0000
 381    1.0000
 382    1.0000
 383    1.0000
 384    1.0000
 385    1.0000
 386    1.0000
 387    1.0000
 388    1.0000
 389    1.0000
 390    1.0000
 391    1.0000
 392    1.0000
 393    1.0000
 394    1.0000
 395    1.0000
 396    1.0000
 397    1.0000
 398    1.0000
 399    1.0000
 400    1.0000
 401    1.0000
 402    1.0000
 403    1.0000
 404    1.0000
 405    1.0000
 406    1.0000
 407    1.0000
 408    1.0000
 409    1.0000
 410    1.0000
 411    1.0000
 412    1.0000
 413    1.0000
 414    1.0000
 415    1.0000
 416    1.0000
 417    1.0000
 418    1.0000
 419    1.0000
 420    1.0000
 421    1.0000
 422    1.0000
 423    1.0000
 424    1.0000
 425    1.0000
 426    1.0000
 427    1.0000
 428    1.0000
 429    1.0000
 430    1.0000
 431    1.0000
 432    1.0000
 433    1.0000
 434    1.0000
 435    1.0000
 436    1.0000
 437    1.0000
 438    1.0000
 439    1.0000
 440    1.0000
 441    1.0000
 442    1.0000
 443    1.0000
 444    1.0000
 445    1.0000
 446    1.0000
 447    1.0000
 448    1.0000
 449    1.0000
 450    1.0000
 451    1.0000
 452    1.0000
 453    1.0000
 454    1.0000
 455    1.0000
 456    1.0000
 457    1.0000
 458    1.0000
 459    1.0000
 460    1.0000
 461    1.0000
 462    1.0000
 463    1.0000
 464    1.0000
 465    1.0000
 466    1.0000
 467    1.0000
 468    1.0000
 469    1.0000
 470    1.0000
 471    1.0000
 472    1.0000
 473    1.0000
 474    1.0000
 475    1.0000
 476    1.0000
 477    1.0000
 478    1.0000
 479    1.0000
 480    1.0000
 481    1.0000
 482    1.0000
 483    1.0000
 484    1.0000
 485    1.0000
 486    1.0000
 487    1.0000
 488    1.0000
 489    1.0000
 490    1.0000
 491    1.0000
 492    1.0000
 493    1.0000
 494    1.0000
 495    1.0000
 496    1.0000
 497    1.0000
 498    1.0000
 499    1.0000
 500    1.0000

Atoms

      1       1       1    0.0000 -2.222456e+00 -2.222456e+00 -2.222456e+00
      2       1       2    0.0000 -1.422456e+00 -2.222456e+00 -2.222456e+00
      3       1       3    0.0000 -6.224556e-01 -2.222456e+00 -2.222456e+00
      4       1       4    0.0000  1.775444e-01 -2.222456e+00 -2.222456e+00
      5       1       5    0.0000  9.775444e-01 -2.222456e+00 -2.222456e+00
      6       1       6    0.0000  1.777544e+00 -2.222456e+00 -2.222456e+00
      7       1       7    0.0000  2.577544e+00 -2.222456e+00 -2.222456e+00
      8       1       8    0.0000  2.577544e+00 -1.422456e+00 -2.222456e+00
      9       1       9    0.0000  1.777544e+00 -1.422456e+00 -2.222456e+00
     10       1      10    0.0000  9.775444e-01 -1.422456e+00 -2.222456e+00
     11       1      11    0.0000  1.775444e-01 -1.422456e+00 -2.222456e+00
     12       1      12    0.0000 -6.224556e-01 -1.422456e+00 -2.222456e+00
     13       1      13    0.0000 -1.422456e+00 -1.422456e+00 -2.222456e+00
     14       1      14    0.0000 -2.222456e+00 -1.422456e+00 -2.222456e+00
     15       1      15    0.0000 -3.022456e+00 -1.422456e+00 -2.222456e+00
     16       1      16    0.0000 -3.022456e+00 -6.224556e-01 -2.222456e+00
     17       1      17    0.0000 -2.222456e+00 -6.224556e-01 -2.222456e+00
     18       1      18    0.0000 -1.422456e+00 -6.224556e-01 -2.222456e+00
     19       1      19    0.0000 -6.224556e-01 -6.224556e-01 -2.222456e+00
     20       1      20    0.0000  1.775444e-01 -6.224556e-01 -2.222456e+00
     21       1      21    0.0000  9.775444e-01 -6.224556e-01 -2.222456e+00
     22       1      22    0.0000  1.777544e+00 -6.224556e-01 -2.222456e+00
     23       1      23    0.0000  2.577544e+00 -6.224556e-01 -2.222456e+00
     24       1      24    0.0000  2.577544e+00  1.775444e-01 -2.222456e+00
     25       1      25    0.0000  1.777544e+00  1.775444e-01 -2.222456e+00
     26       1      26    0.0000  9.775444e-01  1.775444e-01 -2.222456e+00
     27       1      27    0.0000  1.775444e-01  1.775444e-01 -2.222456e+00
     28       1      28    0.0000 -6.224556e-01  1.775444e-01 -2.222456e+00
     29       1      29    0.0000 -1.422456e+00  1.775444e-01 -2.222456e+00
     30       1      30    0.0000 -2.222456e+00  1.775444e-01 -2.222456e+00
     31       1      31    0.0000 -3.022456e+00  1.775444e-01 -2.222456e+00
     32       1      32    0.0000 -3.022456e+00  9.775444e-01 -2.222456e+00
     33       1      33    0.0000 -2.222456e+00  9.775444e-01 -2.222456e+00
     34       1      34    0.0000 -1.422456e+00  9.775444e-01 -2.222456e+00
     35       1      35    0.0000 -6.224556e-01  9.775444e-01 -2.222456e+00
     36       1      36    0.0000  1.775444e-01  9.775444e-01 -2.222456e+00
     37       1      37    0.0000  9.775444e-01  9.775444e-01 -2.222456e+00
     38       1      38    0.0000  1.777544e+00  9.775444e-01 -2.222456e+00
     39       1      39    0.0000  2.577544e+00  9.775444e-01 -2.222456e+00
     40       1      40    0.0000  2.577544e+00  1.777544e+00 -2.222456e+00
     41       1      41    0.0000  1.777544e+00  1.777544e+00 -2.222456e+00
     42       1      42    0.0000  9.775444e-01  1.777544e+00 -2.222456e+00
     43       1      43    0.0000  1.775444e-01  1.777544e+00 -2.222456e+00
     44       1      44    0.0000 -6.224556e-01  1.777544e+00 -2.222456e+00
     45       1      45    0.0000 -1.422456e+00  1.777544e+00 -2.222456e+00
     46       1      46    0.0000 -2.222456e+00  1.777544e+00 -2.222456e+00
     47       1      47    0.0000 -3.022456e+00  1.777544e+00 -2.222456e+00
     48       1      48    0.0000 -3.022456e+00  2.577544e+00 -2.222456e+00
     49       1      49    0.0000 -2.222456e+00  2.577544e+00 -2.222456e+00
     50       1      50    0.0000 -1.422456e+00  2.577544e+00 -2.222456e+00
     51       1      51    0.0000 -6.224556e-01  2.577544e+00 -2.222456e+00
     52       1      52    0.0000  1.775444e-01  2.577544e+00 -2.222456e+00
     53       1      53    0.0000  9.775444e-01  2.577544e+00 -2.222456e+00
     54       1      54    0.0000  1.777544e+00  2.577544e+00 -2.222456e+00
     55       1      55    0.0000  2.577544e+00  2.577544e+00 -2.222456e+00
     56       1      56    0.0000  2.577544e+00  2.577544e+00 -1.422456e+00
     57       1      57    0.0000  1.777544e+00  2.577544e+00 -1.422456e+00
     58       1      58    0.0000  9.775444e-01  2.577544e+00 -1.422456e+00
     59       1      59    0.0000  1.775444e-01  2.577544e+00 -1.422456e+00
     60       1      60    0.0000 -6.224556e-01  2.577544e+00 -1.422456e+00
     61       1      61    0.0000 -1.422456e+00  2.577544e+00 -1.422456e+00
     62       1      62    0.0000 -2.222456e+00  2.577544e+00 -1.422456e+00
     63       1      63    0.0000 -3.022456e+00  2.577544e+00 -1.422456e+00
     64       1      64    0.0000 -3.022456e+00  1.777544e+00 -1.422456e+00
     65       1      65    0.0000 -2.222456e+00  1.777544e+00 -1.422456e+00
     66       1      66    0.0000 -1.422456e+00  1.777544e+00 -1.422456e+00
     67       1      67    0.0000 -6.224556e-01  1.777544e+00 -1.422456e+00
     68       1      68    0.0000  1.775444e-01  1.777544e+00 -1.422456e+00
     69       1      69    0.0000  9.775444e-01  1.777544e+00 -1.422456e+00
     70       1      70    0.0000  1.777544e+00  1.777544e+00 -1.422456e+00
     71       1      71    0.0000  2.577544e+00  1.777544e+00 -1.422456e+00
     72       1      72    0.0000  2.577544e+00  9.775444e-01 -1.422456e+00
     73       1      73    0.0000  1.777544e+00  9.775444e-01 -1.422456e+00
     74       1      74    0.0000  9.775444e-01  9.775444e-01 -1.422456e+00
     75       1      75    0.0000  1.775444e-01  9.775444e-01 -1.422456e+00
     76       1      76    0.0000 -6.224556e-01  9.775444e-01 -1.422456e+00
     77       1      77    0.0000 -1.422456e+00  9.775444e-01 -1.422456e+00
     78       1      78    0.0000 -2.222456e+00  9.775444e-01 -1.422456e+00
     79       1      79    0.0000 -3.022456e+00  9.775444e-01 -1.422456e+00
     80       1      80    0.0000 -3.022456e+00  1.775444e-01 -1.422456e+00
     81       1      81    0.0000 -2.222456e+00  1.775444e-01 -1.422456e+00
     82       1      82    0.0000 -1.422456e+00  1.775444e-01 -1.422456e+00
     83       1      83    0.0000 -6.224556e-01  1.775444e-01 -1.422456e+00
     84       1      84    0.0000  1.775444e-01  1.775444e-01 -1.422456e+00
     85       1      85    0.0000  9.775444e-01  1.775444e-01 -1.422456e+00
     86       1      86    0.0000  1.777544e+00  1.775444e-01 -1.422456e+00
     87       1      87    0.0000  2.577544e+00  1.775444e-01 -1.422456e+00
     88       1      88    0.0000  2.577544e+00 -6.224556e-01 -1.422456e+00
     89       1      89    0.0000  1.777544e+00 -6.224556e-01 -1.422456e+00
     90       1      90    0.0000  9.775444e-01 -6.224556e-01 -1.422456e+00
     91       1      91    0.0000  1.775444e-01 -6.224556e-01 -1.422456e+00
     92       1      92    0.0000 -6.224556e-01 -6.224556e-01 -1.422456e+00
     93       1      93    0.0000 -1.422456e+00 -6.224556e-01 -1.422456e+00
     94       1      94    0.0000 -2.222456e+00 -6.224556e-01 -1.422456e+00
     95       1      95    0.0000 -3.022456e+00 -6.224556e-01 -1.422456e+00
     96       1      96    0.0000 -3.022456e+00 -1.422456e+00 -1.422456e+00
     97       1      97    0.0000 -2.222456e+00 -1.422456e+00 -1.422456e+00
     98       1      98    0.0000 -1.422456e+00 -1.422456e+00 -1.422456e+00
     99       1      99    0.0000 -6.224556e-01 -1.422456e+00 -1.422456e+00
    100       1     100    0.0000  1.775444e-01 -1.422456e+00 -1.422456e+00
    101       1     101    0.0000  9.775444e-01 -1.422456e+00 -1.422456e+00
    102       1     102    0.0000  1.777544e+00 -1.422456e+00 -1.422456e+00
    103       1     103    0.0000  2.577544e+00 -1.422456e+00 -1.422456e+00
    104       1     104    0.0000  2.577544e+00 -2.222456e+00 -1.422456e+00
    105       1     105    0.0000  1.777544e+00 -2.222456e+00 -1.422456e+00
    106       1     106    0.0000  9.775444e-01 -2.222456e+00 -1.422456e+00
    107       1     107    0.0000  1.775444e-01 -2.222456e+00 -1.422456e+00
    108       1     108    0.0000 -6.224556e-01 -2.222456e+00 -1.422456e+00
    109       1     109    0.0000 -1.422456e+00 -2.222456e+00 -1.422456e+00
    110       1     110    0.0000 -2.222456e+00 -2.222456e+00 -1.422456e+00
    111       1     111    0.0000 -3.022456e+00 -2.222456e+00 -1.422456e+00
    112       1     112    0.0000 -3.022456e+00 -3.022456e+00 -1.422456e+00
    113       1     113    0.0000 -2.222456e+00 -3.022456e+00 -1.422456e+00
    114       1     114    0.0000 -1.422456e+00 -3.022456e+00 -1.422456e+00
    115       1     115    0.0000 -6.224556e-01 -3.022456e+00 -1.422456e+00
    116       1     116    0.0000  1.775444e-01 -3.022456e+00 -1.422456e+00
    117       1     117    0.0000  9.775444e-01 -3.022456e+00 -1.422456e+00
    118       1     118    0.0000  1.777544e+00 -3.022456e+00 -1.422456e+00
    119       1     119    0.0000  2.577544e+00 -3.022456e+00 -1.422456e+00
    120       1     120    0.0000  2.577544e+00 -3.022456e+00 -6.224556e-01
    121       1     121    0.0000  1.777544e+00 -3.022456e+00 -6.224556e-01
    122       1     122    0.0000  9.775444e-01 -3.022456e+00 -6.224556e-01
    123       1     123    0.0000  1.775444e-01 -3.022456e+00 -6.224556e-01
    124       1     124    0.0000 -6.224556e-01 -3.022456e+00 -6.224556e-01
    125       1     125    0.0000 -1.422456e+00 -3.022456e+00 -6.224556e-01
    126       1     126    0.0000 -2.222456e+00 -3.022456e+00 -6.224556e-01
    127       1     127    0.0000 -3.022456e+00 -3.022456e+00 -6.224556e-01
    128       1     128    0.0000 -3.022456e+00 -2.222456e+00 -6.224556e-01
    129       1     129    0.0000 -2.222456e+00 -2.222456e+00 -6.224556e-01
    130       1     130    0.0000 -1.422456e+00 -2.222456e+00 -6.224556e-01
    131       1     131    0.0000 -6.224556e-01 -2.222456e+00 -6.224556e-01
    132       1     132    0.0000  1.775444e-01 -2.222456e+00 -6.224556e-01
    133       1     133    0.0000  9.775444e-01 -2.222456e+00 -6.224556e-01
    134       1     134    0.0000  1.777544e+00 -2.222456e+00 -6.224556e-01
    135       1     135    0.0000  2.577544e+00 -2.222456e+00 -6.224556e-01
    136       1     136    0.0000  2.577544e+00 -1.422456e+00 -6.224556e-01
    137       1     137    0.0000  1.777544e+00 -1.422456e+00 -6.224556e-01
    138       1     138    0.0000  9.775444e-01 -1.422456e+00 -6.224556e-01
    139       1     139    0.0000  1.775444e-01 -1.422456e+00 -6.224556e-01
    140       1     140    0.0000 -6.224556e-01 -1.422456e+00 -6.224556e-01
    141       1     141    0.0000 -1.422456e+00 -1.422456e+00 -6.224556e-01
    142       1     142    0.0000 -2.222456e+00 -1.422456e+00 -6.224556e-01
    143       1     143    0.0000 -3.022456e+00 -1.422456e+00 -6.224556e-01
    144       1     144    0.0000 -3.022456e+00 -6.224556e-01 -6.224556e-01
    145       1     145    0.0000 -2.222456e+00 -6.224556e-01 -6.224556e-01
    146       1     146    0.0000 -1.422456e+00 -6.224556e-01 -6.224556e-01
    147       1     147    0.0000 -6.224556e-01 -6.224556e-01 -6.224556e-01
    148       1     148    0.0000  1.775444e-01 -6.224556e-01 -6.224556e-01
    149       1     149    0.0000  9.775444e-01 -6.224556e-01 -6.224556e-01
    150       1     150    0.0000  1.777544e+00 -6.224556e-01 -6.224556e-01
    151       1     151    0.0000  2.577544e+00 -6.224556e-01 -6.224556e-01
    152       1     152    0.0000  2.577544e+00  1.775444e-01 -6.224556e-01
    153       1     153    0.0000  1.777544e+00  1.775444e-01 -6.224556e-01
    154       1     154    0.0000  9.775444e-01  1.775444e-01 -6.224556e-01
    155       1     155    0.0000  1.775444e-01  1.775444e-01 -6.224556e-01
    156       1     156    0.0000 -6.224556e-01  1.775444e-01 -6.224556e-01
    157       1     157    0.0000 -1.422456e+00  1.775444e-01 -6.224556e-01
    158       1     158    0.0000 -2.222456e+00  1.775444e-01 -6.224556e-01
    159       1     159    0.0000 -3.022456e+00  1.775444e-01 -6.224556e-01
    160       1     160    0.0000 -3.022456e+00  9.775444e-01 -6.224556e-01
    161       1     161    0.0000 -2.222456e+00  9.775444e-01 -6.224556e-01
    162       1     162    0.0000 -1.422456e+00  9.775444e-01 -6.224556e-01
    163       1     163    0.0000 -6.224556e-01  9.775444e-01 -6.224556e-01
    164       1     164    0.0000  1.775444e-01  9.775444e-01 -6.224556e-01
    165       1     165    0.0000  9.775444e-01  9.775444e-01 -6.224556e-01
    166       1     166    0.0000  1.777544e+00  9.775444e-01 -6.224556e-01
    167       1     167    0.0000  2.577544e+00  9.775444e-01 -6.224556e-01
    168       1     168    0.0000  2.577544e+00  1.777544e+00 -6.224556e-01
    169       1     169    0.0000  1.777544e+00  1.777544e+00 -6.224556e-01
    170       1     170    0.0000  9.775444e-01  1.777544e+00 -6.224556e-01
    171       1     171    0.0000  1.775444e-01  1.777544e+00 -6.224556e-01
    172       1     172    0.0000 -6.224556e-01  1.777544e+00 -6.224556e-01
    173       1     173    0.0000 -1.422456e+00  1.777544e+00 -6.224556e-01
    174       1     174    0.0000 -2.222456e+00  1.777544e+00 -6.224556e-01
    175       1     175    0.0000 -3.022456e+00  1.777544e+00 -6.224556e-01
    176       1     176    0.0000 -3.022456e+00  2.577544e+00 -6.224556e-01
    177       1     177    0.0000 -2.222456e+00  2.577544e+00 -6.224556e-01
    178       1     178    0.0000 -1.422456e+00  2.577544e+00 -6.224556e-01
    179       1     179    0.0000 -6.224556e-01  2.577544e+00 -6.224556e-01
    180       1     180    0.0000  1.775444e-01  2.577544e+00 -6.224556e-01
    181       1     181    0.0000  9.775444e-01  2.577544e+00 -6.224556e-01
    182       1     182    0.0000  1.777544e+00  2.577544e+00 -6.224556e-01
    183       1     183    0.0000  2.577544e+00  2.577544e+00 -6.224556e-01
    184       1     184    0.0000  2.577544e+00  2.577544e+00  1.775444e-01
    185       1     185    0.0000  1.777544e+00  2.577544e+00  1.775444e-01
    186       1     186    0.0000  9.775444e-01  2.577544e+00  1.775444e-01
    187       1     187    0.0000  1.775444e-01  2.577544e+00  1.775444e-01
    188       1     188    0.0000 -6.224556e-01  2.577544e+00  1.775444e-01
    189       1     189    0.0000 -1.422456e+00  2.577544e+00  1.775444e-01
    190       1     190    0.0000 -2.222456e+00  2.577544e+00  1.775444e-01
    191       1     191    0.0000 -3.022456e+00  2.577544e+00  1.775444e-01
    192       1     192    0.0000 -3.022456e+00  1.777544e+00  1.775444e-01
    193       1     193    0.0000 -2.222456e+00  1.777544e+00  1.775444e-01
    194       1     194    0.0000 -1.422456e+00  1.777544e+00  1.775444e-01
    195       1     195    0.0000 -6.224556e-01  1.777544e+00  1.775444e-01
    196       1     196    0.0000  1.775444e-01  1.777544e+00  1.775444e-01
    197       1     197    0.0000  9.775444e-01  1.777544e+00  1.775444e-01
    198       1     198    0.0000  1.777544e+00  1.777544e+00  1.775444e-01
    199       1     199    0.0000  2.577544e+00  1.777544e+00  1.775444e-01
    200       1     200    0.0000  2.577544e+00  9.775444e-01  1.775444e-01
    201       1     201    0.0000  1.777544e+00  9.775444e-01  1.775444e-01
    202       1     202    0.0000  9.775444e-01  9.775444e-01  1.775444e-01
    203       1     203    0.0000  1.775444e-01  9.775444e-01  1.775444e-01
    204       1     204    0.0000 -6.224556e-01  9.775444e-01  1.775444e-01
    205       1     205    0.0000 -1.422456e+00  9.775444e-01  1.775444e-01
    206       1     206    0.0000 -2.222456e+00  9.775444e-01  1.775444e-01
    207       1     207    0.0000 -3.022456e+00  9.775444e-01  1.775444e-01
    208       1     208    0.0000 -3.022456e+00  1.775444e-01  1.775444e-01
    209       1     209    0.0000 -2.222456e+00  1.775444e-01  1.775444e-01
    210       1     210    0.0000 -1.422456e+00  1.775444e-01  1.775444e-01
    211       1     211    0.0000 -6.224556e-01  1.775444e-01  1.775444e-01
    212       1     212    0.0000  1.775444e-01  1.775444e-01  1.775444e-01
    213       1     213    0.0000  9.775444e-01  1.775444e-01  1.775444e-01
    214       1     214    0.0000  1.777544e+00  1.775444e-01  1.775444e-01
    215       1     215    0.0000  2.577544e+00  1.775444e-01  1.775444e-01
    216       1     216    0.0000  2.577544e+00 -6.224556e-01  1.775444e-01
    217       1     217    0.0000  1.777544e+00 -6.224556e-01  1.775444e-01
    218       1     218    0.0000  9.775444e-01 -6.224556e-01  1.775444e-01
    219       1     219    0.0000  1.775444e-01 -6.224556e-01  1.775444e-01
    220       1     220    0.0000 -6.224556e-01 -6.224556e-01  1.775444e-01
    221       1     221    0.0000 -1.422456e+00 -6.224556e-01  1.775444e-01
    222       1     222    0.0000 -2.222456e+00 -6.224556e-01  1.775444e-01
    223       1     223    0.0000 -3.022456e+00 -6.224556e-01  1.775444e-01
    224       1     224    0.0000 -3.022456e+00 -1.422456e+00  1.775444e-01
    225       1     225    0.0000 -2.222456e+00 -1.422456e+00  1.775444e-01
    226       1     226    0.0000 -1.422456e+00 -1.422456e+00  1.775444e-01
    227       1     227    0.0000 -6.224556e-01 -1.422456e+00  1.775444e-01
    228       1     228    0.0000  1.775444e-01 -1.422456e+00  1.775444e-01
    229       1     229    0.0000  9.775444e-01 -1.422456e+00  1.775444e-01
    230       1     230    0.0000  1.777544e+00 -1.422456e+00  1.775444e-01
    231       1     231    0.0000  2.577544e+00 -1.422456e+00  1.775444e-01
    232       1     232    0.0000  2.577544e+00 -2.222456e+00  1.775444e-01
    233       1     233    0.0000  1.777544e+00 -2.222456e+00  1.775444e-01
    234       1     234    0.0000  9.775444e-01 -2.222456e+00  1.775444e-01
    235       1     235    0.0000  1.775444e-01 -2.222456e+00  1.775444e-01
    236       1     236    0.0000 -6.224556e-01 -2.222456e+00  1.775444e-01
    237       1     237    0.0000 -1.422456e+00 -2.222456e+00  1.775444e-01
    238       1     238    0.0000 -2.222456e+00 -2.222456e+00  1.775444e-01
    239       1     239    0.0000 -3.022456e+00 -2.222456e+00  1.775444e-01
    240       1     240    0.0000 -3.022456e+00 -3.022456e+00  1.775444e-01
    241       1     241    0.0000 -2.222456e+00 -3.022456e+00  1.775444e-01
    242       1     242    0.0000 -1.422456e+00 -3.022456e+00  1.775444e-01
    243       1     243    0.0000 -6.224556e-01 -3.022456e+00  1.775444e-01
    244       1     244    0.0000  1.775444e-01 -3.022456e+00  1.775444e-01
    245       1     245    0.0000  9.775444e-01 -3.022456e+00  1.775444e-01
    246       1     246    0.0000  1.777544e+00 -3.022456e+00  1.775444e-01
    247       1     247    0.0000  2.577544e+00 -3.022456e+00  1.775444e-01
    248       1     248    0.0000  2.577544e+00 -3.022456e+00  9.775444e-01
    249       1     249    0.0000  1.777544e+00 -3.022456e+00  9.775444e-01
    250       1     250    0.0000  9.775444e-01 -3.022456e+00  9.775444e-01
    251       1     251    0.0000  1.775444e-01 -3.022456e+00  9.775444e-01
    252       1     252    0.0000 -6.224556e-01 -3.022456e+00  9.775444e-01
    253       1     253    0.0000 -1.422456e+00 -3.022456e+00  9.775444e-01
    254       1     254    0.0000 -2.222456e+00 -3.022456e+00  9.775444e-01
    255       1     255    0.0000 -3.022456e+00 -3.022456e+00  9.775444e-01
    256       1     256    0.0000 -3.022456e+00 -2.222456e+00  9.775444e-01
    257       1     257    0.0000 -2.222456e+00 -2.222456e+00  9.775444e-01
    258       1     258    0.0000 -1.422456e+00 -2.222456e+00  9.775444e-01
    259       1     259    0.0000 -6.224556e-01 -2.222456e+00  9.775444e-01
    260       1     260    0.0000  1.775444e-01 -2.222456e+00  9.775444e-01
    261       1     261    0.0000  9.775444e-01 -2.222456e+00  9.775444e-01
    262       1     262    0.0000  1.777544e+00 -2.222456e+00  9.775444e-01
    263       1     263    0.0000  2.577544e+00 -2.222456e+00  9.775444e-01
    264       1     264    0.0000  2.577544e+00 -1.422456e+00  9.775444e-01
    265       1     265    0.0000  1.777544e+00 -1.422456e+00  9.775444e-01
    266       1     266    0.0000  9.775444e-01 -1.422456e+00  9.775444e-01
    267       1     267    0.0000  1.775444e-01 -1.422456e+00  9.775444e-01
    268       1     268    0.0000 -6.224556e-01 -1.422456e+00  9.775444e-01
    269       1     269    0.0000 -1.422456e+00 -1.422456e+00  9.775444e-01
    270       1     270    0.0000 -2.222456e+00 -1.422456e+00  9.775444e-01
    271       1     271    0.0000 -3.022456e+00 -1.422456e+00  9.775444e-01
    272       1     272    0.0000 -3.022456e+00 -6.224556e-01  9.775444e-01
    273       1     273    0.0000 -2.222456e+00 -6.224556e-01  9.775444e-01
    274       1     274    0.0000 -1.422456e+00 -6.224556e-01  9.775444e-01
    275       1     275    0.0000 -6.224556e-01 -6.224556e-01  9.775444e-01
    276       1     276    0.0000  1.775444e-01 -6.224556e-01  9.775444e-01
    277       1     277    0.0000  9.775444e-01 -6.224556e-01  9.775444e-01
    278       1     278    0.0000  1.777544e+00 -6.224556e-01  9.775444e-01
    279       1     279    0.0000  2.577544e+00 -6.224556e-01  9.775444e-01
    280       1     280    0.0000  2.577544e+00  1.775444e-01  9.775444e-01
    281       1     281    0.0000  1.777544e+00  1.775444e-01  9.775444e-01
    282       1     282    0.0000  9.775444e-01  1.775444e-01  9.775444e-01
    283       1     283    0.0000  1.775444e-01  1.775444e-01  9.775444e-01
    284       1     284    0.0000 -6.224556e-01  1.775444e-01  9.775444e-01
    285       1     285    0.0000 -1.422456e+00  1.775444e-01  9.775444e-01
    286       1     286    0.0000 -2.222456e+00  1.775444e-01  9.775444e-01
    287       1     287    0.0000 -3.022456e+00  1.775444e-01  9.775444e-01
    288       1     288    0.0000 -3.022456e+00  9.775444e-01  9.775444e-01
    289       1     289    0.0000 -2.222456e+00  9.775444e-01  9.775444e-01
    290       1     290    0.0000 -1.422456e+00  9.775444e-01  9.775444e-01
    291       1     291    0.0000 -6.224556e-01  9.775444e-01  9.775444e-01
    292       1     292    0.0000  1.775444e-01  9.775444e-01  9.775444e-01
    293       1     293    0.0000  9.775444e-01  9.775444e-01  9.775444e-01